 Gaussian 09, Revision D.01,
 Gaussian 09:  EM64M-G09RevD.01 24-Apr-2013

 --------------------------------------------------------------------
 # b3lyp/6-31g* freq=(Raman) iop(7/33=1) nosymm geom=check guess=read
 --------------------------------------------------------------------

 ------------------
 Formamide TDC Calc
 ------------------
 Structure from the checkpoint file:  "formamide_monomer_tdc_calc.chk"
 Charge =  0 Multiplicity = 1

                          Input orientation:
 ---------------------------------------------------------------------
 Center     Atomic      Atomic             Coordinates (Angstroms)
 Number     Number       Type             X           Y           Z
 ---------------------------------------------------------------------
      1          6           0        0.005309    0.000000    0.084233
      2          8           0       -0.032356    0.000000    1.298432
      3          7           0        1.146174    0.000000   -0.652469
      4          1           0       -0.907772    0.000000   -0.538621
      5          1           0        1.125863    0.000000   -1.659979
      6          1           0        2.040281    0.000000   -0.181596
 ---------------------------------------------------------------------

 SCF Done:  E(RB3LYP) =  -169.888778928     A.U. after   10 cycles

 Alpha  occ. eigenvalues --  -19.11542 -14.36549 -10.28831  -1.03187  -0.90999
 Alpha  occ. eigenvalues --   -0.62769  -0.55813  -0.48099  -0.40895  -0.40130
 Alpha  occ. eigenvalues --   -0.27207  -0.25387
 Alpha virt. eigenvalues --    0.03075   0.07264   0.10849   0.16458   0.26936
 Alpha virt. eigenvalues --    0.34522   0.53515   0.55283   0.64918   0.67884
 Alpha virt. eigenvalues --    0.69755   0.71094   0.84182   0.86197   0.87121

 Mulliken charges:
               1
     1  C    0.361134
     2  O   -0.448315
     3  N   -0.696754
     4  H    0.103645
     5  H    0.335873
     6  H    0.344416
 Sum of Mulliken charges =   0.00000

 Dipole moment (field-independent basis, Debye):
    X=              1.4452    Y=              0.0000    Z=             -3.5524  Tot=              3.8351
 Quadrupole moment (field-independent basis, Debye-Ang):
   XX=            -13.4637   YY=            -18.3883   ZZ=            -18.7642
   XY=              0.0000   XZ=             -0.6699   YZ=              0.0000

  Exact polarizability:  22.882   0.000   9.666  -2.819   0.000  26.934
 Approx polarizability:  29.784   0.000  12.926  -6.139   0.000  45.108

                      1                      2                      3
                      A                      A                      A
 Frequencies --     24.9365               562.4679               644.0824
 Red. masses --      1.2283                 2.4104                 1.2050
 Frc consts  --      0.0005                 0.4493                 0.2945
 IR Inten    --    265.2136                12.0059                19.9118
 Raman Activ --      0.6853                 1.3295                 1.6473

                      4                      5                      6
                      A                      A                      A
 Frequencies --   1037.9678              1063.6866              1288.4455
 Red. masses --      1.5387                 1.7492                 2.7175
 Frc consts  --      0.9767                 1.1661                 2.6580
 IR Inten    --      0.0685                 2.0624                92.7951
 Raman Activ --      3.1501                 5.8664                 4.2197

                      7                      8                      9
                      A                      A                      A
 Frequencies --   1434.7873              1640.5185              1847.0619
 Red. masses --      1.2230                 1.2502                 7.5643
 Frc consts  --      1.4834                 1.9824                15.2049
 IR Inten    --      3.9997                68.2398               357.1644
 Raman Activ --      8.0621                 5.6569                 7.0557

                     10                     11                     12
                      A                      A                      A
 Frequencies --   2995.6147              3595.4536              3727.4283
 Red. masses --      1.0863                 1.0457                 1.1049
 Frc consts  --      5.7433                 7.9648                 9.0445
 IR Inten    --    111.0677                30.0849                33.3443
 Raman Activ --    112.5607               111.9579                59.7200

 - Thermochemistry -
 -------------------
 Temperature   298.150 Kelvin.  Pressure   1.00000 Atm.
 Atom     1 has atomic number  6 and mass  12.00000

 Molecular mass:    45.02146 amu.
 Principal axes and moments of inertia in atomic units:
                           1         2         3
     Eigenvalues --    24.66802 158.90742 183.57544
           X           -0.53387   0.84557   0.00000
           Y            0.00000   0.00000   1.00000
           Z            0.84557   0.53387   0.00000
 This molecule is an asymmetric top.
 Rotational symmetry number  1.
 Rotational temperatures (Kelvin)      3.51118     0.54506     0.47182
 Rotational constants (GHZ):          73.16116    11.35719     9.83106
 Zero-point vibrational energy     118803.8 (Joules/Mol)
                                   28.39480 (Kcal/Mol)
 Warning -- explicit consideration of   2 degrees of freedom as
           vibrations may cause significant error
 Vibrational temperatures:     35.88   809.26   926.69  1493.40  1530.41
          (Kelvin)           1853.78  2064.34  2360.34  2657.51  4310.02
                             5173.05  5362.93

 Zero-point correction=                           0.045250 (Hartree/Particle)
 Thermal correction to Energy=                    0.049373
 Thermal correction to Enthalpy=                  0.050317
 Thermal correction to Gibbs Free Energy=         0.019033
 Sum of electronic and zero-point Energies=           -169.843529
 Sum of electronic and thermal Energies=              -169.839406
 Sum of electronic and thermal Enthalpies=            -169.838462
 Sum of electronic and thermal Free Energies=         -169.869746

                     E (Thermal)             CV                S
                      KCal/Mol        Cal/Mol-Kelvin    Cal/Mol-Kelvin
 Total                   30.982             10.964             65.843
 Electronic               0.000              0.000              0.000
 Translational            0.889              2.981             37.339
 Rotational               0.889              2.981             21.203
 Vibrational             29.204              5.002              7.301
 Vibration     1          0.593              1.985              6.196
 Vibration     2          0.918              1.112              0.519

 Normal termination of Gaussian 09 at Mon May  6 14:22:30 2019.
