 Gaussian 09, Revision D.01,
 Gaussian 09:  EM64M-G09RevD.01 24-Apr-2013

 ----------------------------------------
 # wb97xd/6-31+g* Pop=NaturalOrbital freq
 ----------------------------------------

 -------------------------------------
 Formamide dimer frequency calculation
 -------------------------------------
 Symbolic Z-matrix:
 Charge =  0 Multiplicity = 1

                         Standard orientation:
 ---------------------------------------------------------------------
 Center     Atomic      Atomic             Coordinates (Angstroms)
 Number     Number       Type             X           Y           Z
 ---------------------------------------------------------------------
      1          6           0       -2.499993    0.000680   -0.420960
      2          8           0       -2.499996   -1.198594   -0.228661
      3          7           0       -2.500010    0.939291    0.559372
      4          1           0       -2.499975    0.439120   -1.435339
      5          1           0       -2.500006    1.924591    0.348769
      6          1           0       -2.500027    0.645920    1.525957
      7          6           0        2.500005   -0.297494   -0.298295
      8          8           0        2.499988   -1.008890    0.685697
      9          7           0        2.500005    1.059465   -0.268370
     10          1           0        2.500023   -0.704038   -1.324873
     11          1           0        2.500020    1.607666   -1.114593
     12          1           0        2.499989    1.536202    0.622307
 ---------------------------------------------------------------------

 SCF Done:  E(RwB97XD) =  -339.687893570     A.U. after   12 cycles

 Mulliken charges:
               1
     1  C    0.227378
     2  O   -0.479874
     3  N   -0.729877
     4  H    0.164334
     5  H    0.396810
     6  H    0.421457
     7  C    0.233405
     8  O   -0.484282
     9  N   -0.736282
    10  H    0.171455
    11  H    0.398610
    12  H    0.416866
 Sum of Mulliken charges =   0.00000

 Dipole moment (field-independent basis, Debye):
    X=              0.0000    Y=              7.3428    Z=             -1.8140  Tot=              7.5636
 Quadrupole moment (field-independent basis, Debye-Ang):
   XX=            -38.5066   YY=            -35.3733   ZZ=            -31.2591
   XY=             -1.9786   XZ=             -7.8835   YZ=              1.8400

  Exact polarizability:  33.567  -0.054  60.555  -0.063  -1.822  49.218
 Approx polarizability:  32.026  -0.029  65.112  -0.029  -4.327  50.401

 ******    4 imaginary frequencies (negative Signs) ******

                      1                      2                      3
                      A                      A                      A
 Frequencies --    -87.4842               -81.7129               -33.8616
 Red. masses --      1.7357                 1.6757                 4.2651
 Frc consts  --      0.0078                 0.0066                 0.0029
 IR Inten    --      7.1422                 9.1685                 3.6832

                      4                      5                      6
                      A                      A                      A
 Frequencies --    -27.8022                 6.4379                24.5876
 Red. masses --      5.5245                 6.9349                 6.5479
 Frc consts  --      0.0025                 0.0002                 0.0023
 IR Inten    --     33.3559                 0.2361                 0.3533

                      7                      8                      9
                      A                      A                      A
 Frequencies --    202.2516               264.0260               573.7724
 Red. masses --      1.2453                 1.2001                 2.5128
 Frc consts  --      0.0300                 0.0493                 0.4874
 IR Inten    --    574.9733                 4.7210                 9.5130

                     10                     11                     12
                      A                      A                      A
 Frequencies --    575.3930               637.7740               642.1108
 Red. masses --      2.5116                 1.1883                 1.1937
 Frc consts  --      0.4899                 0.2848                 0.2900
 IR Inten    --     11.9145                28.1335                 3.1941

                     13                     14                     15
                      A                      A                      A
 Frequencies --   1034.0489              1037.4332              1078.4214
 Red. masses --      1.5710                 1.5714                 1.7159
 Frc consts  --      0.9897                 0.9965                 1.1758
 IR Inten    --      1.9051                 1.8311                 1.5742

                     16                     17                     18
                      A                      A                      A
 Frequencies --   1078.7047              1299.3036              1302.7825
 Red. masses --      1.7143                 2.7514                 2.7420
 Frc consts  --      1.1753                 2.7367                 2.7420
 IR Inten    --      6.3731                47.4879               173.6689

                     19                     20                     21
                      A                      A                      A
 Frequencies --   1434.6936              1437.2322              1653.2452
 Red. masses --      1.2095                 1.2117                 1.2458
 Frc consts  --      1.4668                 1.4747                 2.0061
 IR Inten    --      4.1016                 4.3879                44.9770

                     22                     23                     24
                      A                      A                      A
 Frequencies --   1654.0593              1840.0880              1846.1611
 Red. masses --      1.2476                 7.5377                 7.5406
 Frc consts  --      2.0110                15.0371                15.1424
 IR Inten    --     91.9314               139.9487               783.8467

                     25                     26                     27
                      A                      A                      A
 Frequencies --   3013.0919              3028.8451              3630.8559
 Red. masses --      1.0871                 1.0876                 1.0464
 Frc consts  --      5.8151                 5.8786                 8.1279
 IR Inten    --     96.8916                94.4110                37.4971

                     28                     29                     30
                      A                      A                      A
 Frequencies --   3635.6688              3765.7890              3771.9698
 Red. masses --      1.0464                 1.1054                 1.1055
 Frc consts  --      8.1496                 9.2361                 9.2672
 IR Inten    --     45.7594                46.1197                49.1042

 - Thermochemistry -
 -------------------
 Temperature   298.150 Kelvin.  Pressure   1.00000 Atm.
 Atom     1 has atomic number  6 and mass  12.00000

 Molecular mass:    90.04293 amu.
 Principal axes and moments of inertia in atomic units:
                           1         2         3
     Eigenvalues --   366.810132098.461402288.15371
           X            0.99994  -0.00268  -0.01042
           Y            0.00289   0.99980   0.01967
           Z            0.01037  -0.01970   0.99975
 This molecule is an asymmetric top.
 Rotational symmetry number  1.
 Rotational temperatures (Kelvin)      0.23613     0.04127     0.03785
 Rotational constants (GHZ):           4.92010     0.86003     0.78873
    4 imaginary frequencies ignored.
 Zero-point vibrational energy     242056.9 (Joules/Mol)
                                   57.85298 (Kcal/Mol)
 Warning -- explicit consideration of   6 degrees of freedom as
           vibrations may cause significant error
 Vibrational temperatures:      9.26    35.38   290.99   379.87   825.53
          (Kelvin)            827.86   917.61   923.85  1487.76  1492.63
                             1551.61  1552.01  1869.41  1874.41  2064.20
                             2067.85  2378.65  2379.82  2647.47  2656.21
                             4335.16  4357.83  5223.99  5230.91  5418.12
                             5427.02

 Zero-point correction=                           0.092195 (Hartree/Particle)
 Thermal correction to Energy=                    0.098659
 Thermal correction to Enthalpy=                  0.099603
 Thermal correction to Gibbs Free Energy=         0.057134
 Sum of electronic and zero-point Energies=           -339.595699
 Sum of electronic and thermal Energies=              -339.589235
 Sum of electronic and thermal Enthalpies=            -339.588291
 Sum of electronic and thermal Free Energies=         -339.630759

                     E (Thermal)             CV                S
                      KCal/Mol        Cal/Mol-Kelvin    Cal/Mol-Kelvin
 Total                   61.909             19.468             89.383
 Electronic               0.000              0.000              0.000
 Translational            0.889              2.981             39.405
 Rotational               0.889              2.981             28.956
 Vibrational             60.132             13.506             21.021
 Vibration     1          0.593              1.987              8.886
 Vibration     2          0.593              1.985              6.224
 Vibration     3          0.639              1.837              2.113
 Vibration     4          0.671              1.739              1.635
 Vibration     5          0.930              1.088              0.497
 Vibration     6          0.932              1.084              0.494

 Normal termination of Gaussian 09 at Mon May  6 14:21:08 2019.
