 Gaussian 09, Revision D.01,
 Gaussian 09:  EM64M-G09RevD.01 24-Apr-2013

 --------------------------------------------
 # wb97xd/6-31+g* Pop=NaturalOrbital opt freq
 --------------------------------------------

 -------------------------------
 Formamide geometry optimization
 -------------------------------
 Symbolic Z-matrix:
 Charge =  0 Multiplicity = 1

 SCF Done:  E(RwB97XD) =  -169.825258351     A.U. after   12 cycles
 SCF Done:  E(RwB97XD) =  -169.843015623     A.U. after   12 cycles
 SCF Done:  E(RwB97XD) =  -169.844340071     A.U. after   11 cycles
 SCF Done:  E(RwB97XD) =  -169.844432490     A.U. after   10 cycles
 SCF Done:  E(RwB97XD) =  -169.844436745     A.U. after    9 cycles
 Optimization completed.
    -- Stationary point found.
 Normal termination of Gaussian 09 at Mon May  6 13:15:33 2019.

 ----------------------------------------------------------------------
 #N Geom=AllCheck Guess=TCheck SCRF=Check GenChk RwB97XD/6-31+G(d) Freq
 ----------------------------------------------------------------------

 Structure from the checkpoint file:  "formamide_wb97xd.opt.chk"
 -------------------------------
 Formamide geometry optimization
 -------------------------------
 Charge =  0 Multiplicity = 1

                         Standard orientation:
 ---------------------------------------------------------------------
 Center     Atomic      Atomic             Coordinates (Angstroms)
 Number     Number       Type             X           Y           Z
 ---------------------------------------------------------------------
      1          6           0        0.000000    0.421328    0.000000
      2          8           0        1.199188    0.227304    0.000000
      3          7           0       -0.940296   -0.558543    0.000000
      4          1           0       -0.437765    1.436230    0.000000
      5          1           0       -1.925540   -0.346924    0.000000
      6          1           0       -0.648127   -1.525903    0.000000
 ---------------------------------------------------------------------

 SCF Done:  E(RwB97XD) =  -169.844436745     A.U. after    1 cycles

 Mulliken charges:
               1
     1  C    0.258935
     2  O   -0.497880
     3  N   -0.748967
     4  H    0.169129
     5  H    0.400012
     6  H    0.418771
 Sum of Mulliken charges =   0.00000

 Dipole moment (field-independent basis, Debye):
    X=             -4.1460    Y=             -0.6156    Z=              0.0000  Tot=              4.1914
 Quadrupole moment (field-independent basis, Debye-Ang):
   XX=            -18.5782   YY=            -14.6940   ZZ=            -19.1980
   XY=             -0.1122   XZ=              0.0000   YZ=              0.0000

  Exact polarizability:  31.998   2.097  24.063   0.000   0.000  16.051
 Approx polarizability:  34.595   1.565  22.931   0.000   0.000  15.847

                      1                      2                      3
                     A"                     A'                     A"
 Frequencies --    250.0026               575.8642               644.1465
 Red. masses --      1.2270                 2.5153                 1.1998
 Frc consts  --      0.0452                 0.4915                 0.2933
 IR Inten    --    276.8116                11.3869                18.3995

                      4                      5                      6
                     A"                     A'                     A'
 Frequencies --   1037.6936              1078.9664              1300.0920
 Red. masses --      1.5495                 1.7180                 2.7610
 Frc consts  --      0.9830                 1.1784                 2.7495
 IR Inten    --      2.0871                 4.5335               119.3954

                      7                      8                      9
                     A'                     A'                     A'
 Frequencies --   1438.4597              1653.6834              1842.8495
 Red. masses --      1.2090                 1.2442                 7.4704
 Frc consts  --      1.4739                 2.0047                14.9476
 IR Inten    --      5.0913                71.7381               489.2721

                     10                     11                     12
                     A'                     A'                     A'
 Frequencies --   3013.9568              3632.3662              3769.3247
 Red. masses --      1.0876                 1.0465                 1.1054
 Frc consts  --      5.8211                 8.1355                 9.2532
 IR Inten    --     98.0234                44.6679                51.3763

 - Thermochemistry -
 -------------------
 Temperature   298.150 Kelvin.  Pressure   1.00000 Atm.
 Atom     1 has atomic number  6 and mass  12.00000

 Molecular mass:    45.02146 amu.
 Principal axes and moments of inertia in atomic units:
                           1         2         3
     Eigenvalues --    24.66802 158.90742 183.57544
           X            0.93169  -0.36325   0.00000
           Y            0.36325   0.93169   0.00000
           Z            0.00000   0.00000   1.00000
 This molecule is an asymmetric top.
 Rotational symmetry number  1.
 Rotational temperatures (Kelvin)      3.51118     0.54506     0.47182
 Rotational constants (GHZ):          73.16116    11.35719     9.83106
 Zero-point vibrational energy     121046.6 (Joules/Mol)
                                   28.93082 (Kcal/Mol)
 Warning -- explicit consideration of   2 degrees of freedom as
           vibrations may cause significant error
 Vibrational temperatures:    359.70   828.54   926.78  1493.01  1552.39
          (Kelvin)           1870.54  2069.62  2379.28  2651.45  4336.41
                             5226.16  5423.21

 Zero-point correction=                           0.046104 (Hartree/Particle)
 Thermal correction to Energy=                    0.049814
 Thermal correction to Enthalpy=                  0.050759
 Thermal correction to Gibbs Free Energy=         0.021611
 Sum of electronic and zero-point Energies=           -169.798333
 Sum of electronic and thermal Energies=              -169.794622
 Sum of electronic and thermal Enthalpies=            -169.793678
 Sum of electronic and thermal Free Energies=         -169.822825

                     E (Thermal)             CV                S
                      KCal/Mol        Cal/Mol-Kelvin    Cal/Mol-Kelvin
 Total                   31.259             10.690             61.345
 Electronic               0.000              0.000              0.000
 Translational            0.889              2.981             37.339
 Rotational               0.889              2.981             21.203
 Vibrational             29.482              4.728              2.803
 Vibration     1          0.663              1.763              1.731
 Vibration     2          0.932              1.083              0.493

 Optimization completed.
    -- Stationary point found.
 Normal termination of Gaussian 09 at Mon May  6 13:16:04 2019.
