 Gaussian 16, Revision A.03,
 Gaussian 16:  EM64M-G16RevA.03 25-Dec-2016

 ----------------------------------------
 # wb97xd/6-31+g* Pop=NaturalOrbital freq
 ----------------------------------------

 -------------------------------------
 Formamide dimer frequency calculation
 -------------------------------------
 Symbolic Z-matrix:
 Charge =  0 Multiplicity = 1

                         Standard orientation:
 ---------------------------------------------------------------------
 Center     Atomic      Atomic             Coordinates (Angstroms)
 Number     Number       Type             X           Y           Z
 ---------------------------------------------------------------------
      1          6           0       -2.536478    0.009697   -0.410390
      2          8           0       -2.548636   -1.189672   -0.219067
      3          7           0       -2.445590    0.945166    0.568772
      4          1           0       -2.599925    0.450018   -1.421966
      5          1           0       -2.439435    1.931649    0.358113
      6          1           0       -2.382487    0.650975    1.531740
      7          6           0        2.478290   -0.304740   -0.307660
      8          8           0        2.533637   -1.017894    0.673499
      9          7           0        2.509917    1.051838   -0.276274
     10          1           0        2.395584   -0.709177   -1.332737
     11          1           0        2.460869    1.601569   -1.121084
     12          1           0        2.584228    1.526724    0.611288
 ---------------------------------------------------------------------

 SCF Done:  E(RwB97XD) =  -339.687997488     A.U. after   12 cycles

 Mulliken charges:
               1
     1  C    0.227354
     2  O   -0.480469
     3  N   -0.730646
     4  H    0.164785
     5  H    0.396645
     6  H    0.422328
     7  C    0.233136
     8  O   -0.484696
     9  N   -0.735539
    10  H    0.171903
    11  H    0.398327
    12  H    0.416873
 Sum of Mulliken charges =   0.00000

 Dipole moment (field-independent basis, Debye):
    X=              0.0260    Y=              7.3518    Z=             -1.8107  Tot=              7.5715
 Quadrupole moment (field-independent basis, Debye-Ang):
   XX=            -39.6549   YY=            -35.3715   ZZ=            -31.2230
   XY=             -1.7730   XZ=             -7.3329   YZ=              1.8536

  Exact polarizability:  33.577   0.440  60.507   1.161  -1.856  49.072
 Approx polarizability:  32.131   0.380  65.125   1.201  -4.333  50.300

 ******    5 imaginary frequencies (negative Signs) ******

                      1                      2                      3
                      A                      A                      A
 Frequencies --    -60.5091               -43.7867               -29.2017
 Red. masses --      1.7580                 1.8741                 4.6230
 Frc consts  --      0.0038                 0.0021                 0.0023
 IR Inten    --      2.2678                 0.6632                10.0888

                      4                      5                      6
                      A                      A                      A
 Frequencies --    -15.3002               -13.3136                29.4886
 Red. masses --      4.5520                 5.1680                 5.2529
 Frc consts  --      0.0006                 0.0005                 0.0027
 IR Inten    --     21.0477                 1.2606                 1.3325

                      7                      8                      9
                      A                      A                      A
 Frequencies --    202.6719               269.5748               574.8170
 Red. masses --      1.2919                 1.2281                 2.5099
 Frc consts  --      0.0313                 0.0526                 0.4886
 IR Inten    --    602.9584                 3.0465                 7.7674

                     10                     11                     12
                      A                      A                      A
 Frequencies --    575.3433               634.1148               639.3733
 Red. masses --      2.5126                 1.1966                 1.1938
 Frc consts  --      0.4900                 0.2835                 0.2875
 IR Inten    --     14.0811                23.4736                 1.6076

                     13                     14                     15
                      A                      A                      A
 Frequencies --   1048.0993              1050.1942              1079.0288
 Red. masses --      1.5501                 1.5467                 1.7203
 Frc consts  --      1.0032                 1.0051                 1.1801
 IR Inten    --      1.9890                 1.8584                 3.4275

                     16                     17                     18
                      A                      A                      A
 Frequencies --   1080.4961              1298.3663              1301.4505
 Red. masses --      1.7176                 2.7446                 2.7311
 Frc consts  --      1.1815                 2.7260                 2.7255
 IR Inten    --      5.0491                36.9551               182.6635

                     19                     20                     21
                      A                      A                      A
 Frequencies --   1435.8804              1437.4223              1654.4948
 Red. masses --      1.2130                 1.2093                 1.2432
 Frc consts  --      1.4735                 1.4722                 2.0050
 IR Inten    --      4.1901                 4.5239                45.6327

                     22                     23                     24
                      A                      A                      A
 Frequencies --   1655.7096              1840.6149              1846.4450
 Red. masses --      1.2463                 7.5628                 7.5678
 Frc consts  --      2.0130                15.0959                15.2016
 IR Inten    --     93.4735               145.8642               774.5472

                     25                     26                     27
                      A                      A                      A
 Frequencies --   3014.2083              3018.7798              3632.2098
 Red. masses --      1.0871                 1.0878                 1.0462
 Frc consts  --      5.8194                 5.8406                 8.1321
 IR Inten    --     87.5750               102.6275                37.9013

                     28                     29                     30
                      A                      A                      A
 Frequencies --   3637.8222              3766.2537              3772.3910
 Red. masses --      1.0461                 1.1057                 1.1058
 Frc consts  --      8.1569                 9.2408                 9.2720
 IR Inten    --     44.9199                46.1435                50.0197

 - Thermochemistry -
 -------------------
 Temperature   298.150 Kelvin.  Pressure   1.00000 Atm.
 Atom     1 has atomic number  6 and mass  12.00000

 Molecular mass:    90.04293 amu.
 Principal axes and moments of inertia in atomic units:
                           1         2         3
     Eigenvalues --   366.066202111.568182301.55564
           X            0.99995  -0.00231  -0.00953
           Y            0.00250   0.99980   0.01974
           Z            0.00948  -0.01977   0.99976
 This molecule is an asymmetric top.
 Rotational symmetry number  1.
 Rotational temperatures (Kelvin)      0.23661     0.04102     0.03763
 Rotational constants (GHZ):           4.93010     0.85469     0.78414
    5 imaginary frequencies ignored.
 Zero-point vibrational energy     242215.4 (Joules/Mol)
                                   57.89087 (Kcal/Mol)
 Warning -- explicit consideration of   5 degrees of freedom as
           vibrations may cause significant error
 Vibrational temperatures:     42.43   291.60   387.86   827.03   827.79
          (Kelvin)            912.35   919.92  1507.98  1511.00  1552.48
                             1554.59  1868.06  1872.50  2065.91  2068.13
                             2380.45  2382.20  2648.23  2656.62  4336.77
                             4343.35  5225.94  5234.01  5418.80  5427.63

 Zero-point correction=                           0.092255 (Hartree/Particle)
 Thermal correction to Energy=                    0.097770
 Thermal correction to Enthalpy=                  0.098714
 Thermal correction to Gibbs Free Energy=         0.060654
 Sum of electronic and zero-point Energies=           -339.595743
 Sum of electronic and thermal Energies=              -339.590228
 Sum of electronic and thermal Enthalpies=            -339.589283
 Sum of electronic and thermal Free Energies=         -339.627344

                     E (Thermal)             CV                S
                      KCal/Mol        Cal/Mol-Kelvin    Cal/Mol-Kelvin
 Total                   61.352             17.452             80.105
 Electronic               0.000              0.000              0.000
 Translational            0.889              2.981             39.405
 Rotational               0.889              2.981             28.966
 Vibrational             59.574             11.490             11.733
 Vibration     1          0.593              1.984              5.864
 Vibration     2          0.639              1.836              2.109
 Vibration     3          0.674              1.729              1.599
 Vibration     4          0.931              1.086              0.495
 Vibration     5          0.932              1.085              0.494

 Normal termination of Gaussian 16 at Wed May  8 09:32:05 2019.
