 Gaussian 09, Revision D.01,
 Gaussian 09:  EM64M-G09RevD.01 24-Apr-2013

 --------------------------------------------------------------------
 # b3lyp/6-31g* freq=(Raman) iop(7/33=1) nosymm geom=check guess=read
 --------------------------------------------------------------------

 -----------
 H2O TD Calc
 -----------
 Structure from the checkpoint file:  "h2o_tdc_calc.chk"
 Charge =  0 Multiplicity = 1

                          Input orientation:
 ---------------------------------------------------------------------
 Center     Atomic      Atomic             Coordinates (Angstroms)
 Number     Number       Type             X           Y           Z
 ---------------------------------------------------------------------
      1          8           0       -0.012216    0.000000   -0.008633
      2          1           0        0.038072    0.000000    0.959089
      3          1           0        0.916785    0.000000   -0.284262
 ---------------------------------------------------------------------

 SCF Done:  E(RB3LYP) =  -76.4089534557     A.U. after    3 cycles

 Alpha  occ. eigenvalues --  -19.13828  -0.99784  -0.51685  -0.37241  -0.29120
 Alpha virt. eigenvalues --    0.06250   0.14798   0.77195   0.86090   0.89076
 Alpha virt. eigenvalues --    0.89515   1.06562   1.19377   1.72887   1.74652
 Alpha virt. eigenvalues --    1.77973   2.28019   2.57641   3.55157

 Mulliken charges:
               1
     1  O   -0.774070
     2  H    0.387035
     3  H    0.387035
 Sum of Mulliken charges =   0.00000

 Dipole moment (field-independent basis, Debye):
    X=              1.7125    Y=              0.0000    Z=              1.2103  Tot=              2.0970
 Quadrupole moment (field-independent basis, Debye-Ang):
   XX=             -5.1286   YY=             -7.2045   ZZ=             -4.7092
   XY=              0.0000   XZ=             -0.5922   YZ=              0.0000

  Exact polarizability:   6.087   0.000   2.830  -0.926   0.000   6.743
 Approx polarizability:   7.504   0.000   3.081  -1.039   0.000   8.240

                      1                      2                      3
                      A                      A                      A
 Frequencies --   1714.2948              3724.0451              3845.2651
 Red. masses --      1.0824                 1.0454                 1.0809
 Frc consts  --      1.8742                 8.5420                 9.4166
 IR Inten    --     75.5559                 1.6658                19.1199
 Raman Activ --      7.9956                78.8775                39.1883

 - Thermochemistry -
 -------------------
 Temperature   298.150 Kelvin.  Pressure   1.00000 Atm.
 Atom     1 has atomic number  8 and mass  15.99491

 Molecular mass:    18.01056 amu.
 Principal axes and moments of inertia in atomic units:
                           1         2         3
     Eigenvalues --     2.29809   4.17136   6.46944
           X           -0.57715   0.81664   0.00000
           Y            0.00000   0.00000   1.00000
           Z            0.81664   0.57715   0.00000
 This molecule is an asymmetric top.
 Rotational symmetry number  2.
 Rotational temperatures (Kelvin)     37.68953    20.76394    13.38814
 Rotational constants (GHZ):         785.32327   432.65087   278.96388
 Zero-point vibrational energy      55528.3 (Joules/Mol)
                                   13.27158 (Kcal/Mol)
 Vibrational temperatures:   2466.48  5358.06  5532.47
          (Kelvin)

 Zero-point correction=                           0.021150 (Hartree/Particle)
 Thermal correction to Energy=                    0.023984
 Thermal correction to Enthalpy=                  0.024928
 Thermal correction to Gibbs Free Energy=         0.003481
 Sum of electronic and zero-point Energies=            -76.387804
 Sum of electronic and thermal Energies=               -76.384969
 Sum of electronic and thermal Enthalpies=             -76.384025
 Sum of electronic and thermal Free Energies=          -76.405472

                     E (Thermal)             CV                S
                      KCal/Mol        Cal/Mol-Kelvin    Cal/Mol-Kelvin
 Total                   15.050              5.996             45.140
 Electronic               0.000              0.000              0.000
 Translational            0.889              2.981             34.608
 Rotational               0.889              2.981             10.526
 Vibrational             13.273              0.035              0.005

 Optimization completed.
    -- Stationary point found.
 Normal termination of Gaussian 09 at Fri May  3 08:19:24 2019.
